Program Version,EnergyPlus, Version 9.1.0-08d2e308bb, YMD=2019.11.20 10:32
1,5,Environment Title[],Latitude[deg],Longitude[deg],Time Zone[],Elevation[m]
2,8,Day of Simulation[],Month[],Day of Month[],DST Indicator[1=yes 0=no],Hour[],StartMinute[],EndMinute[],DayType
3,5,Cumulative Day of Simulation[],Month[],Day of Month[],DST Indicator[1=yes 0=no],DayType  ! When Daily Report Variables Requested
4,2,Cumulative Days of Simulation[],Month[]  ! When Monthly Report Variables Requested
5,1,Cumulative Days of Simulation[] ! When Run Period Report Variables Requested
6,1,Calendar Year of Simulation[] ! When Annual Report Variables Requested
7,9,Environment,Site Outdoor Air Drybulb Temperature [C] !Monthly [Value,Min,Day,Hour,Minute,Max,Day,Hour,Minute]
8,1,Environment,Site Outdoor Air Wetbulb Temperature [C] !TimeStep
950,1,CORE_BOTTOM ZN,Zone Air Temperature [C] !Hourly
951,7,CORE_BOTTOM ZN,Zone Air Relative Humidity [%] !Daily [Value,Min,Hour,Minute,Max,Hour,Minute]
990,1,CORE_MID ZN,Zone Air Temperature [C] !Hourly
991,7,CORE_MID ZN,Zone Air Relative Humidity [%] !Daily [Value,Min,Hour,Minute,Max,Hour,Minute]
1030,1,CORE_TOP ZN,Zone Air Temperature [C] !Hourly
1031,7,CORE_TOP ZN,Zone Air Relative Humidity [%] !Daily [Value,Min,Hour,Minute,Max,Hour,Minute]
1070,1,FIRSTFLOOR_PLENUM ZN,Zone Air Temperature [C] !Hourly
1071,7,FIRSTFLOOR_PLENUM ZN,Zone Air Relative Humidity [%] !Daily [Value,Min,Hour,Minute,Max,Hour,Minute]
1110,1,MIDFLOOR_PLENUM ZN,Zone Air Temperature [C] !Hourly
1111,7,MIDFLOOR_PLENUM ZN,Zone Air Relative Humidity [%] !Daily [Value,Min,Hour,Minute,Max,Hour,Minute]
1150,1,PERIMETER_BOT_ZN_1 ZN,Zone Air Temperature [C] !Hourly
1151,7,PERIMETER_BOT_ZN_1 ZN,Zone Air Relative Humidity [%] !Daily [Value,Min,Hour,Minute,Max,Hour,Minute]
1190,1,PERIMETER_BOT_ZN_2 ZN,Zone Air Temperature [C] !Hourly
1191,7,PERIMETER_BOT_ZN_2 ZN,Zone Air Relative Humidity [%] !Daily [Value,Min,Hour,Minute,Max,Hour,Minute]
1230,1,PERIMETER_BOT_ZN_3 ZN,Zone Air Temperature [C] !Hourly
1231,7,PERIMETER_BOT_ZN_3 ZN,Zone Air Relative Humidity [%] !Daily [Value,Min,Hour,Minute,Max,Hour,Minute]
1270,1,PERIMETER_BOT_ZN_4 ZN,Zone Air Temperature [C] !Hourly
1271,7,PERIMETER_BOT_ZN_4 ZN,Zone Air Relative Humidity [%] !Daily [Value,Min,Hour,Minute,Max,Hour,Minute]
1310,1,PERIMETER_MID_ZN_1 ZN,Zone Air Temperature [C] !Hourly
1311,7,PERIMETER_MID_ZN_1 ZN,Zone Air Relative Humidity [%] !Daily [Value,Min,Hour,Minute,Max,Hour,Minute]
1350,1,PERIMETER_MID_ZN_2 ZN,Zone Air Temperature [C] !Hourly
1351,7,PERIMETER_MID_ZN_2 ZN,Zone Air Relative Humidity [%] !Daily [Value,Min,Hour,Minute,Max,Hour,Minute]
1390,1,PERIMETER_MID_ZN_3 ZN,Zone Air Temperature [C] !Hourly
1391,7,PERIMETER_MID_ZN_3 ZN,Zone Air Relative Humidity [%] !Daily [Value,Min,Hour,Minute,Max,Hour,Minute]
1430,1,PERIMETER_MID_ZN_4 ZN,Zone Air Temperature [C] !Hourly
1431,7,PERIMETER_MID_ZN_4 ZN,Zone Air Relative Humidity [%] !Daily [Value,Min,Hour,Minute,Max,Hour,Minute]
1470,1,PERIMETER_TOP_ZN_1 ZN,Zone Air Temperature [C] !Hourly
1471,7,PERIMETER_TOP_ZN_1 ZN,Zone Air Relative Humidity [%] !Daily [Value,Min,Hour,Minute,Max,Hour,Minute]
1510,1,PERIMETER_TOP_ZN_2 ZN,Zone Air Temperature [C] !Hourly
1511,7,PERIMETER_TOP_ZN_2 ZN,Zone Air Relative Humidity [%] !Daily [Value,Min,Hour,Minute,Max,Hour,Minute]
1550,1,PERIMETER_TOP_ZN_3 ZN,Zone Air Temperature [C] !Hourly
1551,7,PERIMETER_TOP_ZN_3 ZN,Zone Air Relative Humidity [%] !Daily [Value,Min,Hour,Minute,Max,Hour,Minute]
1590,1,PERIMETER_TOP_ZN_4 ZN,Zone Air Temperature [C] !Hourly
1591,7,PERIMETER_TOP_ZN_4 ZN,Zone Air Relative Humidity [%] !Daily [Value,Min,Hour,Minute,Max,Hour,Minute]
1630,1,TOPFLOOR_PLENUM ZN,Zone Air Temperature [C] !Hourly
1631,7,TOPFLOOR_PLENUM ZN,Zone Air Relative Humidity [%] !Daily [Value,Min,Hour,Minute,Max,Hour,Minute]
10,1,Electricity:Facility [J] !TimeStep
716,1,Gas:Facility [J] !TimeStep
End of Data Dictionary
1,EL PASO INTERNATIONAL AP  UT ANN CLG .4% CONDNS DB=>MWB,  31.77,-106.50,  -7.00,1186.00
2,1, 7,21, 0, 1, 0.00,10.00,SummerDesignDay
8,14.64092837317805
10,75830979.00773598
716,1202058.129234228
2,1, 7,21, 0, 1,10.00,20.00,SummerDesignDay
8,14.596310265327804
10,90232217.50314522
716,1202058.129234228
2,1, 7,21, 0, 1,20.00,30.00,SummerDesignDay
8,14.551613526109366
10,89620141.4001202
716,1202058.129234228
2,1, 7,21, 0, 1,30.00,40.00,SummerDesignDay
8,14.506852769496979
10,81700871.02121698
716,1202058.129234228
2,1, 7,21, 0, 1,40.00,50.00,SummerDesignDay
8,14.462007569222772
10,80810202.56250599
716,1202058.129234228
2,1, 7,21, 0, 1,50.00,60.00,SummerDesignDay
8,14.417082917603438
10,90553258.52736503
716,1202058.129234228
2,1, 7,21, 0, 1, 0.00,60.00,SummerDesignDay
950,27.143937222497397
990,26.362923813260737
1030,26.36965565323649
1070,26.51544479990393
1110,26.255675827841047
1150,25.291499284117113
1190,24.375421432540365
1230,25.570238319252469
1270,24.39902643706317
1310,25.64048848825611
1350,24.789443329792176
1390,25.88273331070414
1430,24.824811986808375
1470,25.63097981213325
1510,24.85647790647329
1550,25.836179464472737
1590,24.836172704115083
1630,26.29015048027054
2,1, 7,21, 0, 2, 0.00,10.00,SummerDesignDay
8,14.3870929425431
10,89609143.31389211
716,1202058.1292342279
2,1, 7,21, 0, 2,10.00,20.00,SummerDesignDay
8,14.357077422615069
10,81527223.40444866
716,1202058.129234228
2,1, 7,21, 0, 2,20.00,30.00,SummerDesignDay
8,14.327019438333265
10,80750498.13589955
716,1202058.129234228
2,1, 7,21, 0, 2,30.00,40.00,SummerDesignDay
8,14.296924142836323
10,90476314.03993459
716,1202058.129234228
2,1, 7,21, 0, 2,40.00,50.00,SummerDesignDay
8,14.266798078269316
10,89491205.6823394
716,1202058.129234228
2,1, 7,21, 0, 2,50.00,60.00,SummerDesignDay
8,14.236645828374068
10,81325133.71351777
716,1202058.129234228
2,1, 7,21, 0, 2, 0.00,60.00,SummerDesignDay
950,27.364116753200695
990,26.239170448936375
1030,26.25279084186893
1070,26.550017454659384
1110,26.196301844942324
1150,25.36082887286104
1190,24.4329809484168
1230,25.655335277004214
1270,24.44461222100632
1310,25.324736273994536
1350,24.360418605267058
1390,25.608040914578287
1430,24.349950869446109
1470,25.29985617643976
1510,24.417221562923705
1550,25.543002054772307
1590,24.34441632714177
1630,26.210884620908037
2,1, 7,21, 0, 3, 0.00,10.00,SummerDesignDay
8,14.214002993543446
10,80758118.22095427
716,1202058.129234228
2,1, 7,21, 0, 3,10.00,20.00,SummerDesignDay
8,14.191340669663728
10,90202013.68064989
716,1202058.1292342279
2,1, 7,21, 0, 3,20.00,30.00,SummerDesignDay
8,14.168659291408929
10,89366126.0513181
716,1202058.129234228
2,1, 7,21, 0, 3,30.00,40.00,SummerDesignDay
8,14.145955244301021
10,81184801.93814893
716,1202058.129234228
2,1, 7,21, 0, 3,40.00,50.00,SummerDesignDay
8,14.123234851053754
10,80767009.77599915
716,1202058.129234228
2,1, 7,21, 0, 3,50.00,60.00,SummerDesignDay
8,14.10050684008325
10,90100777.19350836
716,1202058.1292342279
2,1, 7,21, 0, 3, 0.00,60.00,SummerDesignDay
950,27.164648625094519
990,26.44035361067593
1030,26.392650526183116
1070,26.67436964192667
1110,26.211669593501925
1150,25.374633779824575
1190,24.37365822023696
1230,25.691895994784145
1270,24.32885026384055
1310,25.38584933904551
1350,24.408047144912769
1390,25.67471614698165
1430,24.376058474157096
1470,25.285335759817874
1510,24.38034057850545
1550,25.545814588049124
1590,24.266868011265868
1630,26.134108440587374
2,1, 7,21, 0, 4, 0.00,10.00,SummerDesignDay
8,14.07774428281449
10,89254996.29660377
716,1202058.129234228
2,1, 7,21, 0, 4,10.00,20.00,SummerDesignDay
8,14.054965695708648
10,81074521.49976078
716,1202058.129234228
2,1, 7,21, 0, 4,20.00,30.00,SummerDesignDay
8,14.03216731101118
10,80770102.04085458
716,1202058.129234228
2,1, 7,21, 0, 4,30.00,40.00,SummerDesignDay
8,14.00934634688096
10,90033565.65781115
716,1202058.1292342279
2,1, 7,21, 0, 4,40.00,50.00,SummerDesignDay
8,13.986508995571639
10,89164147.0787178
716,1202058.129234228
2,1, 7,21, 0, 4,50.00,60.00,SummerDesignDay
8,13.96365222318946
10,80977417.26757178
716,1202058.129234228
2,1, 7,21, 0, 4, 0.00,60.00,SummerDesignDay
950,27.382084353513166
990,26.35319277928453
1030,26.280015676050956
1070,26.626014007371265
1110,26.193336289338018
1150,25.402401915749569
1190,24.442478592227077
1230,25.7015508400489
1270,24.40684172580539
1310,25.161848837540476
1350,24.105290633074593
1390,25.476071857188939
1430,24.074163175668344
1470,25.03367929338985
1510,24.06790785274397
1550,25.316788709341965
1590,23.933636291625786
1630,26.04908049037486
2,1, 7,21, 0, 5, 0.00,10.00,SummerDesignDay
8,13.94841185019754
10,80773683.9516074
716,1202058.129234228
2,1, 7,21, 0, 5,10.00,20.00,SummerDesignDay
8,13.933154494709731
10,89988700.09496834
716,1202058.1292342279
2,1, 7,21, 0, 5,20.00,30.00,SummerDesignDay
8,13.917887971919227
10,89092443.07479498
716,1202058.129234228
2,1, 7,21, 0, 5,30.00,40.00,SummerDesignDay
8,13.902613024030116
10,80898599.20934227
716,1202058.129234228
2,1, 7,21, 0, 5,40.00,50.00,SummerDesignDay
8,13.887329375578983
10,80782998.5437156
716,1202058.129234228
2,1, 7,21, 0, 5,50.00,60.00,SummerDesignDay
8,13.872036794323638
10,89955976.06480351
716,1202058.1292342279
2,1, 7,21, 0, 5, 0.00,60.00,SummerDesignDay
950,27.179457574494625
990,26.555568825171677
1030,26.462549331062389
1070,26.722820752596225
1110,26.240674143219008
1150,25.337882619316138
1190,24.30869513783851
1230,25.65988466071612
1270,24.24571791008452
1310,25.322683646264719
1350,24.269813572685384
1390,25.62711734729052
1430,24.21648025604588
1470,25.17706956100372
1510,24.21697489970498
1550,25.46013750393615
1590,24.088723362141839
1630,26.032560295212588
2,1, 7,21, 0, 6, 0.00,10.00,SummerDesignDay
8,13.887329375578983
10,93375939.30124842
716,1202058.1292342279
2,1, 7,21, 0, 6,10.00,20.00,SummerDesignDay
8,13.902613024030116
10,78811665.62436605
716,1202058.129234228
2,1, 7,21, 0, 6,20.00,30.00,SummerDesignDay
8,13.917887971919227
10,79974386.75904419
716,1202058.129234228
2,1, 7,21, 0, 6,30.00,40.00,SummerDesignDay
8,13.933154494709731
10,91166130.42482208
716,1202058.1292342279
2,1, 7,21, 0, 6,40.00,50.00,SummerDesignDay
8,13.94841185019754
10,87929478.54897969
716,1202058.129234228
2,1, 7,21, 0, 6,50.00,60.00,SummerDesignDay
8,13.96365222318946
10,78393042.25230479
716,1202058.129234228
2,1, 7,21, 0, 6, 0.00,60.00,SummerDesignDay
950,26.594626682575499
990,25.812402171478757
1030,25.80769571479202
1070,26.494352392183328
1110,26.15581460864443
1150,25.191764558839194
1190,24.493117351311907
1230,25.468711366674147
1270,24.30132795422818
1310,25.080026928972289
1350,24.079159716181676
1390,25.439792787734747
1430,23.891339092023498
1470,24.91185948979675
1510,24.010321183385896
1550,25.249769486258374
1590,23.74823389627495
1630,25.91273228783928
2,1, 7,21, 0, 7, 0.00,10.00,SummerDesignDay
8,14.016957802700875
10,99063511.42408535
716,1202058.129234228
2,1, 7,21, 0, 7,10.00,20.00,SummerDesignDay
8,14.070153643794715
10,97393928.70797177
716,1202058.1292342279
2,1, 7,21, 0, 7,20.00,30.00,SummerDesignDay
8,14.123234851053754
10,97479196.9598659
716,1202058.129234228
2,1, 7,21, 0, 7,30.00,40.00,SummerDesignDay
8,14.17622197027045
10,95938888.57828243
716,1202058.129234228
2,1, 7,21, 0, 7,40.00,50.00,SummerDesignDay
8,14.229100298315057
10,96682576.37866859
716,1202058.129234228
2,1, 7,21, 0, 7,50.00,60.00,SummerDesignDay
8,14.281865477528079
10,97147454.2299863
716,1202058.129234228
2,1, 7,21, 0, 7, 0.00,60.00,SummerDesignDay
950,25.15158789650908
990,25.011575665368473
1030,25.00986223606388
1070,26.112584185854258
1110,25.963719761932695
1150,24.931575280048393
1190,24.95062902817126
1230,24.988423512355895
1270,24.14336571845313
1310,24.999767546119398
1350,24.944522333670834
1390,25.00044747213924
1430,24.18349777048105
1470,24.99179273990458
1510,24.923769334361809
1550,25.000296338940207
1590,24.01802555953975
1630,25.76591290556283
2,1, 7,21, 0, 8, 0.00,10.00,SummerDesignDay
8,14.409588563956366
10,117716543.37964183
716,1202058.1292342279
2,1, 7,21, 0, 8,10.00,20.00,SummerDesignDay
8,14.536698943383895
10,117009315.28508654
716,1202058.129234228
2,1, 7,21, 0, 8,20.00,30.00,SummerDesignDay
8,14.663212307012877
10,117476302.60118182
716,1202058.129234228
2,1, 7,21, 0, 8,30.00,40.00,SummerDesignDay
8,14.789107174986058
10,114719419.50808469
716,1202058.129234228
2,1, 7,21, 0, 8,40.00,50.00,SummerDesignDay
8,14.91440650871413
10,115683314.75396145
716,1202058.129234228
2,1, 7,21, 0, 8,50.00,60.00,SummerDesignDay
8,15.039111392244424
10,115943634.80820714
716,1202058.129234228
2,1, 7,21, 0, 8, 0.00,60.00,SummerDesignDay
950,24.115474077730985
990,24.065607046158534
1030,24.04756096537345
1070,25.55096719736363
1110,25.52547611779578
1150,24.01188297943419
1190,24.014421921588594
1230,24.030762787311546
1270,24.00186402631074
1310,24.01005100559935
1350,24.01485582957758
1390,24.027971774908129
1430,24.003635327524738
1470,24.00733414234428
1510,24.010909525135216
1550,24.019261418917556
1590,23.999740908569977
1630,25.436753561935089
2,1, 7,21, 0, 9, 0.00,10.00,SummerDesignDay
8,15.177789942069497
10,116559818.5741122
716,1202058.129234228
2,1, 7,21, 0, 9,10.00,20.00,SummerDesignDay
8,15.31573847562797
10,117203085.93163295
716,1202058.129234228
2,1, 7,21, 0, 9,20.00,30.00,SummerDesignDay
8,15.452962563989072
10,117905526.41421645
716,1202058.129234228
2,1, 7,21, 0, 9,30.00,40.00,SummerDesignDay
8,15.589468967112753
10,118640334.75214067
716,1202058.129234228
2,1, 7,21, 0, 9,40.00,50.00,SummerDesignDay
8,15.72526322887865
10,119446791.59546457
716,1506802.279506042
2,1, 7,21, 0, 9,50.00,60.00,SummerDesignDay
8,15.860352053450445
10,120284965.54107844
716,5288723.2486267299
2,1, 7,21, 0, 9, 0.00,60.00,SummerDesignDay
950,23.99961777089335
990,23.99963631847824
1030,23.999657867043238
1070,25.430053316547057
1110,25.436135106765467
1150,23.99959695152725
1190,23.999727128862316
1230,23.99961526664708
1270,23.999597510367875
1310,23.999689686881085
1350,23.999827436603395
1390,23.99970416606435
1430,23.999688286672695
1470,23.99970877247647
1510,23.999853041035679
1550,23.99972318004538
1590,23.999707704217817
1630,25.50364343160385
2,1, 7,21, 0,10, 0.00,10.00,SummerDesignDay
8,15.980627062278268
10,121191043.07223694
716,1202058.129234228
2,1, 7,21, 0,10,10.00,20.00,SummerDesignDay
8,16.10034599619386
10,121959430.51789998
716,1202058.129234228
2,1, 7,21, 0,10,20.00,30.00,SummerDesignDay
8,16.219513400749464
10,122729371.14490792
716,1202058.129234228
2,1, 7,21, 0,10,30.00,40.00,SummerDesignDay
8,16.33812277819224
10,123485189.93668974
716,5638943.050251265
2,1, 7,21, 0,10,40.00,50.00,SummerDesignDay
8,16.456207462100467
10,124228304.16844632
716,1202058.129234228
2,1, 7,21, 0,10,50.00,60.00,SummerDesignDay
8,16.573734172570359
10,124948958.33212187
716,1202058.129234228
2,1, 7,21, 0,10, 0.00,60.00,SummerDesignDay
950,23.999543183550334
990,23.999560721531667
1030,23.999576512961199
1070,25.417610676950436
1110,25.42759932832385
1150,23.99955670125289
1190,23.999692833996517
1230,23.999570291466683
1270,23.99956228345985
1310,23.999635315769429
1350,23.999768942377185
1390,23.9996447729379
1430,23.999638286715677
1470,23.999652575967845
1510,23.999790335699428
1550,23.999661532448117
1590,23.999654623268716
1630,25.6828928939093
2,1, 7,21, 0,11, 0.00,10.00,SummerDesignDay
8,16.677008793194604
10,125557959.5742792
716,1202058.129234228
2,1, 7,21, 0,11,10.00,20.00,SummerDesignDay
8,16.779866871645927
10,126128080.58316694
716,5654923.054741495
2,1, 7,21, 0,11,20.00,30.00,SummerDesignDay
8,16.88229572793353
10,126682695.96925666
716,1202058.129234228
2,1, 7,21, 0,11,30.00,40.00,SummerDesignDay
8,16.984337610285079
10,127205850.79946563
716,1202058.129234228
2,1, 7,21, 0,11,40.00,50.00,SummerDesignDay
8,17.085952091090154
10,127695351.21265017
716,1202058.129234228
2,1, 7,21, 0,11,50.00,60.00,SummerDesignDay
8,17.187182103110513
10,128160207.23821958
716,5655866.031622717
2,1, 7,21, 0,11, 0.00,60.00,SummerDesignDay
950,23.999493402857629
990,23.99950157115059
1030,23.999513945058138
1070,25.415415684371369
1110,25.429251078727888
1150,23.999534836961037
1190,23.999650078782314
1230,23.999540986060344
1270,23.99953869213689
1310,23.99959892580664
1350,23.999705892322738
1390,23.999601438329227
1430,23.999599886054186
1470,23.99961520735236
1510,23.999723549743366
1550,23.999616859757965
1590,23.99961519266869
1630,25.866605300372613
2,1, 7,21, 0,12, 0.00,10.00,SummerDesignDay
8,17.25444738750258
10,128378266.20120004
716,1202058.129234228
2,1, 7,21, 0,12,10.00,20.00,SummerDesignDay
8,17.32151419050933
10,128576128.7849539
716,1202058.129234228
2,1, 7,21, 0,12,20.00,30.00,SummerDesignDay
8,17.38842597604156
10,128766365.05757897
716,5750641.184003516
2,1, 7,21, 0,12,30.00,40.00,SummerDesignDay
8,17.455161581606658
10,128961967.55595103
716,1202058.129234228
2,1, 7,21, 0,12,40.00,50.00,SummerDesignDay
8,17.521722700362607
10,129180157.17887329
716,1202058.129234228
2,1, 7,21, 0,12,50.00,60.00,SummerDesignDay
8,17.58809261236413
10,129436417.11091903
716,5748894.735065672
2,1, 7,21, 0,12, 0.00,60.00,SummerDesignDay
950,23.999453476171458
990,23.999455412519308
1030,23.99946596698614
1070,25.418143090595163
1110,25.43639157796304
1150,23.999523533059628
1190,23.999604705217668
1230,23.999517288615633
1270,23.999518385472049
1310,23.999574489688088
1350,23.999645770082159
1390,23.999566842153567
1430,23.999568377233289
1470,23.99959004370479
1510,23.999660559566896
1550,23.99958159958204
1590,23.999583189020297
1630,26.03417489748263
2,1, 7,21, 0,13, 0.00,10.00,SummerDesignDay
8,17.641075164932109
10,129658809.69178252
716,1202058.129234228
2,1, 7,21, 0,13,10.00,20.00,SummerDesignDay
8,17.693949532565538
10,130101549.16207342
716,5878517.547397281
2,1, 7,21, 0,13,20.00,30.00,SummerDesignDay
8,17.74671429838318
10,130656116.8894399
716,1202058.129234228
2,1, 7,21, 0,13,30.00,40.00,SummerDesignDay
8,17.799369955066778
10,131295658.14096055
716,2227499.2276980637
2,1, 7,21, 0,13,40.00,50.00,SummerDesignDay
8,17.851894624669297
10,133689557.95484376
716,4844505.050177728
2,1, 7,21, 0,13,50.00,60.00,SummerDesignDay
8,17.904331420080813
10,134244574.20218895
716,1202058.129234228
2,1, 7,21, 0,13, 0.00,60.00,SummerDesignDay
950,24.003062258073198
990,23.999423442188037
1030,23.99943279848382
1070,25.40103180198238
1110,25.435830055894156
1150,24.040463543627568
1190,24.003122188326285
1230,24.014746656407437
1270,24.003080795005187
1310,23.99955932266324
1350,23.999584442833308
1390,23.999542389145945
1430,23.999532563169223
1470,23.999573600736569
1510,23.9995981153635
1550,23.99955639365413
1590,23.999547673684167
1630,26.155995115443046
2,1, 7,21, 0,14, 0.00,10.00,SummerDesignDay
8,17.937047591344649
10,134694177.3917918
716,5835112.181152286
2,1, 7,21, 0,14,10.00,20.00,SummerDesignDay
8,17.96972160882945
10,135157851.4430112
716,1202058.129234228
2,1, 7,21, 0,14,20.00,30.00,SummerDesignDay
8,18.002355518825607
10,135620552.8017873
716,5836563.036141552
2,1, 7,21, 0,14,30.00,40.00,SummerDesignDay
8,18.034945264455378
10,136082994.20941139
716,1202058.129234228
2,1, 7,21, 0,14,40.00,50.00,SummerDesignDay
8,18.06747751505161
10,136527861.95243813
716,4352681.721322872
2,1, 7,21, 0,14,50.00,60.00,SummerDesignDay
8,18.099982723377776
10,140086906.47673876
716,2685642.0869162299
2,1, 7,21, 0,14, 0.00,60.00,SummerDesignDay
950,24.080648366927659
990,23.9993984623457
1030,24.000298965943228
1070,25.40045831860093
1110,25.42452489480255
1150,24.249578969812533
1190,24.072099124879725
1230,24.19447315894239
1270,24.08651441663447
1310,23.999544501168307
1350,23.99954934433619
1390,23.999523137622448
1430,23.99951320732851
1470,24.0210444705954
1510,24.0008870943563
1550,24.01779127905299
1590,24.001111123904399
1630,26.20016987352139
2,1, 7,21, 0,15, 0.00,10.00,SummerDesignDay
8,18.099982723377776
10,142312378.83501859
716,1202058.129234228
2,1, 7,21, 0,15,10.00,20.00,SummerDesignDay
8,18.099982723377776
10,142312378.83501859
716,1202058.129234228
2,1, 7,21, 0,15,20.00,30.00,SummerDesignDay
8,18.099982723377776
10,142312378.83501859
716,4471180.08323836
2,1, 7,21, 0,15,30.00,40.00,SummerDesignDay
8,18.099982723377776
10,142312378.83501859
716,2329163.9461540768
2,1, 7,21, 0,15,40.00,50.00,SummerDesignDay
8,18.099982723377776
10,142312378.83501859
716,1202058.129234228
2,1, 7,21, 0,15,50.00,60.00,SummerDesignDay
8,18.099982723377776
10,142312378.83501859
716,1202058.129234228
2,1, 7,21, 0,15, 0.00,60.00,SummerDesignDay
950,24.21341346947327
990,24.011797789654819
1030,24.01702099948089
1070,25.46422699831975
1110,25.36996940279737
1150,24.28561969202866
1190,24.144536988471449
1230,24.383663057417278
1270,24.228961418559025
1310,24.036466371532254
1350,24.019195347167579
1390,24.115101626589298
1430,24.029857139705585
1470,24.13090746837936
1510,24.027106375544525
1550,24.190195400635209
1590,24.065118184481177
1630,26.119592634993358
2,1, 7,21, 0,16, 0.00,10.00,SummerDesignDay
8,18.060969059485957
10,142177970.30982364
716,1202058.129234228
2,1, 7,21, 0,16,10.00,20.00,SummerDesignDay
8,18.021914477779313
10,142044188.96932469
716,1202058.129234228
2,1, 7,21, 0,16,20.00,30.00,SummerDesignDay
8,17.982782053324134
10,139596496.76085357
716,5583147.890288659
2,1, 7,21, 0,16,30.00,40.00,SummerDesignDay
8,17.94358560209326
10,136313551.1749688
716,1202058.129234228
2,1, 7,21, 0,16,40.00,50.00,SummerDesignDay
8,17.904331420080813
10,136452848.81644718
716,1202058.129234228
2,1, 7,21, 0,16,50.00,60.00,SummerDesignDay
8,17.865013844755699
10,136129602.56983079
716,1202058.129234228
2,1, 7,21, 0,16, 0.00,60.00,SummerDesignDay
950,24.20962755041761
990,24.00344331338751
1030,24.00736676835102
1070,25.491212627694485
1110,25.40985102821408
1150,24.148723805651586
1190,24.14055345058509
1230,24.368377179272728
1270,24.522986161310738
1310,24.00649051515545
1350,24.006594458165936
1390,24.039134884861526
1430,24.049758268710517
1470,24.014449301552749
1510,24.012845110070715
1550,24.090449909464927
1590,24.156893253460038
1630,26.160677048938838
2,1, 7,21, 0,17, 0.00,10.00,SummerDesignDay
8,17.812495024110758
10,135656597.8944579
716,1202058.129234228
2,1, 7,21, 0,17,10.00,20.00,SummerDesignDay
8,17.759887977365879
10,135228768.77128879
716,5706833.623551254
2,1, 7,21, 0,17,20.00,30.00,SummerDesignDay
8,17.707150844534838
10,134798680.1175799
716,1202058.129234228
2,1, 7,21, 0,17,30.00,40.00,SummerDesignDay
8,17.65430315297701
10,134332722.35649268
716,1202058.129234228
2,1, 7,21, 0,17,40.00,50.00,SummerDesignDay
8,17.60134858581879
10,133818286.78306149
716,5712262.25289204
2,1, 7,21, 0,17,50.00,60.00,SummerDesignDay
8,17.54829778738307
10,133241611.14878899
716,1202058.129234228
2,1, 7,21, 0,17, 0.00,60.00,SummerDesignDay
950,24.08267988426456
990,23.999271050532714
1030,23.99930753657304
1070,25.446302382845344
1110,25.42466817810043
1150,24.070247041057557
1190,24.07162669883248
1230,24.19755465965675
1270,24.40849782866131
1310,23.99940201980932
1350,23.99941058348074
1390,23.999390618388646
1430,23.999458399876546
1470,23.99944268505227
1510,23.999451364344357
1550,23.999450547149594
1590,23.999758631901775
1630,26.14176153251177
2,1, 7,21, 0,18, 0.00,10.00,SummerDesignDay
8,17.48180907369832
10,131098748.49487286
716,1202058.129234228
2,1, 7,21, 0,18,10.00,20.00,SummerDesignDay
8,17.41514011142117
10,129833374.8781277
716,1202058.129234228
2,1, 7,21, 0,18,20.00,30.00,SummerDesignDay
8,17.348302108961997
10,128750866.73746147
716,1202058.129234228
2,1, 7,21, 0,18,30.00,40.00,SummerDesignDay
8,17.28130220813211
10,127508343.5584447
716,1202058.129234228
2,1, 7,21, 0,18,40.00,50.00,SummerDesignDay
8,17.21410834265379
10,126234899.5235524
716,1202058.129234228
2,1, 7,21, 0,18,50.00,60.00,SummerDesignDay
8,17.1467367661317
10,124907243.68432278
716,1202058.129234228
2,1, 7,21, 0,18, 0.00,60.00,SummerDesignDay
950,24.00011215735736
990,23.99918275277949
1030,23.999185031000637
1070,25.41328699492736
1110,25.437616343818104
1150,23.9999659303195
1190,23.999999364622146
1230,24.00230051268817
1270,24.008157126959394
1310,23.99931915481879
1350,23.999328246027138
1390,23.99930652109896
1430,23.999346831600638
1470,23.99932091371689
1510,23.999329924979777
1550,23.999308831184469
1590,23.99934412944035
1630,26.049880223950809
2,1, 7,21, 0,19, 0.00,10.00,SummerDesignDay
8,17.045364252141437
10,123355018.65884292
716,1202058.129234228
2,1, 7,21, 0,19,10.00,20.00,SummerDesignDay
8,16.94356932210928
10,121508149.19023386
716,1202058.129234228
2,1, 7,21, 0,19,20.00,30.00,SummerDesignDay
8,16.841367639781696
10,119839159.4524703
716,1202058.129234228
2,1, 7,21, 0,19,30.00,40.00,SummerDesignDay
8,16.738774433976358
10,118193543.39314108
716,1202058.129234228
2,1, 7,21, 0,19,40.00,50.00,SummerDesignDay
8,16.63574834417922
10,116406949.62621142
716,1202058.129234228
2,1, 7,21, 0,19,50.00,60.00,SummerDesignDay
8,16.532327941804323
10,115038596.50089965
716,1202058.129234228
2,1, 7,21, 0,19, 0.00,60.00,SummerDesignDay
950,23.99905133101848
990,23.999092848372869
1030,23.999080266250048
1070,25.41842180789574
1110,25.457078392970727
1150,23.999224756970674
1190,23.999233248780099
1230,23.999239574803878
1270,23.999291682334577
1310,23.999234470381908
1350,23.999243028799495
1390,23.999246070499408
1430,23.999289940481505
1470,23.999222595971479
1510,23.999231248036897
1550,23.999233342308007
1590,23.999273316245085
1630,25.929372885014258
2,1, 7,21, 0,20, 0.00,10.00,SummerDesignDay
8,16.456207462100467
10,118785905.14146765
716,1202058.129234228
2,1, 7,21, 0,20,10.00,20.00,SummerDesignDay
8,16.379860448824766
10,117947171.43519658
716,1202058.129234228
2,1, 7,21, 0,20,20.00,30.00,SummerDesignDay
8,16.303286400055648
10,117168611.09649901
716,1202058.129234228
2,1, 7,21, 0,20,30.00,40.00,SummerDesignDay
8,16.2265064898532
10,116438352.95651226
716,1202058.129234228
2,1, 7,21, 0,20,40.00,50.00,SummerDesignDay
8,16.149483912728127
10,115750135.1854595
716,1202058.129234228
2,1, 7,21, 0,20,50.00,60.00,SummerDesignDay
8,16.072225384067449
10,115097518.17543635
716,1202058.129234228
2,1, 7,21, 0,20, 0.00,60.00,SummerDesignDay
950,23.99908566464278
990,23.99910405343905
1030,23.999085720301463
1070,25.411399780495697
1110,25.456347033554449
1150,23.99923100856243
1190,23.99923959096631
1230,23.999240992525445
1270,23.99928211457016
1310,23.999242256567198
1350,23.999251170322414
1390,23.99924949853151
1430,23.999284375850807
1470,23.999225140658174
1510,23.99923411724272
1550,23.999232022162329
1590,23.99926436389235
1630,25.773143324940994
2,1, 7,21, 0,21, 0.00,10.00,SummerDesignDay
8,16.008847590293166
10,114529540.02063172
716,1202058.129234228
2,1, 7,21, 0,21,10.00,20.00,SummerDesignDay
8,15.94530855858409
10,113985783.51701035
716,1202058.129234228
2,1, 7,21, 0,21,20.00,30.00,SummerDesignDay
8,15.881618364836358
10,113463973.86877723
716,1202058.129234228
2,1, 7,21, 0,21,30.00,40.00,SummerDesignDay
8,15.81776677593777
10,112962417.59487263
716,1202058.129234228
2,1, 7,21, 0,21,40.00,50.00,SummerDesignDay
8,15.753762583277542
10,112479607.96383593
716,1202058.129234228
2,1, 7,21, 0,21,50.00,60.00,SummerDesignDay
8,15.689595407290394
10,112013107.94719182
716,1202058.129234228
2,1, 7,21, 0,21, 0.00,60.00,SummerDesignDay
950,23.999138311903324
990,23.999145535839238
1030,23.999129176840069
1070,25.387638332184
1110,25.43578728623984
1150,23.999255416264977
1190,23.999264062597037
1230,23.999257101782168
1270,23.999287463512635
1310,23.99926852880124
1350,23.99927743549993
1390,23.999269511315359
1430,23.99929452027528
1470,23.99925408578373
1510,23.999263040538609
1550,23.999255101558899
1590,23.99927863615847
1630,25.636709706433228
2,1, 7,21, 0,22, 0.00,10.00,SummerDesignDay
8,15.625266187922753
10,111561827.78186728
716,1202058.129234228
2,1, 7,21, 0,22,10.00,20.00,SummerDesignDay
8,15.560789082326068
10,111123561.0482212
716,1202058.129234228
2,1, 7,21, 0,22,20.00,30.00,SummerDesignDay
8,15.496140807323537
10,110698417.16488211
716,1202058.1292342279
2,1, 7,21, 0,22,30.00,40.00,SummerDesignDay
8,15.431342888774026
10,110427011.05063322
716,1202058.129234228
2,1, 7,21, 0,22,40.00,50.00,SummerDesignDay
8,15.366372512206743
10,110158898.07162671
716,1202058.129234228
2,1, 7,21, 0,22,50.00,60.00,SummerDesignDay
8,15.301251348492798
10,109753920.2238411
716,1202058.129234228
2,1, 7,21, 0,22, 0.00,60.00,SummerDesignDay
950,23.999171509904028
990,23.999169365651438
1030,23.999157384105048
1070,25.360795179000367
1110,25.41440950082202
1150,23.999277496080017
1190,23.99928589004577
1230,23.99927756086659
1270,23.999302886668376
1310,23.9992829918239
1350,23.999291598196164
1390,23.99928294000611
1430,23.9993034392289
1470,23.999272677086993
1510,23.999281306839465
1550,23.999272699123556
1590,23.99929223363627
1630,25.533276327881436
2,1, 7,21, 0,23, 0.00,10.00,SummerDesignDay
8,15.25047949561303
10,71230731.83878383
716,1202058.129234228
2,1, 7,21, 0,23,10.00,20.00,SummerDesignDay
8,15.199620606763482
10,83653000.91921355
716,1202058.129234228
2,1, 7,21, 0,23,20.00,30.00,SummerDesignDay
8,15.148654203870575
10,91670497.29464789
716,1202058.129234228
2,1, 7,21, 0,23,30.00,40.00,SummerDesignDay
8,15.097585642023026
10,91644338.39317429
716,1202058.1292342279
2,1, 7,21, 0,23,40.00,50.00,SummerDesignDay
8,15.04642863379905
10,71230731.83878383
716,1202058.129234228
2,1, 7,21, 0,23,50.00,60.00,SummerDesignDay
8,14.995160483136314
10,92774644.69432789
716,1202058.129234228
2,1, 7,21, 0,23, 0.00,60.00,SummerDesignDay
950,26.986921840713057
990,26.190840540769078
1030,26.182259992214246
1070,26.211456036932593
1110,26.14490439859802
1150,25.15423573728855
1190,24.51071055825396
1230,25.338532981654294
1270,24.64927804264749
1310,25.9485815387272
1350,25.57862516067084
1390,26.043292609478145
1430,25.706094542092349
1470,25.912945154299185
1510,25.588751547210337
1550,26.009218934353866
1590,25.679404084869437
1630,26.24032150563583
2,1, 7,21, 0,24, 0.00,10.00,SummerDesignDay
8,14.943794968534199
10,92790486.30190903
716,1202058.129234228
2,1, 7,21, 0,24,10.00,20.00,SummerDesignDay
8,14.892337370365587
10,91790640.80599366
716,1202058.1292342279
2,1, 7,21, 0,24,20.00,30.00,SummerDesignDay
8,14.840767057646899
10,71230731.83878383
716,1202058.129234228